HEADER
"PSFversion" "1.00"
"Time Stamp" "Oct 18 00:34:04 2017"
TYPE
"variable" STRUCT(
"value" FLOAT DOUBLE
) PROP( "key" "element" )
VALUE
"Ts" "variable" ( 1e-9 ) PROP( )
"N" "variable" ( 9.2 ) PROP( )
"Cl" "variable" ( 1e-12 ) PROP( )
"temp" "variable" ( 27 ) PROP( )
END
