HEADER
"PSFversion" "1.00"
"E0n" "ee315_vcvs_spectre"
"M0n" "ee315_nmos_spectre"
"I4n" "ee315_idc_spectre"
"pin1v" ":1v"
"pin2v" ":2v"
"[@bulk_n:%:gnd!]v" ":3v"
