HEADER
"PSFversion" "1.00"
"I31n" "clock_gen_e"
"C3n Csn Cfn" "ee315_cap_spectre"
"E2n E0n" "ee315_vcvs_spectre"
"I1n" "OTA1_diff_in"
"I40n I20n I18n" "p1_switch"
"V4n V3n V2n V1n V0n" "ee315_vdc_spectre"
"I28n I11n I19n" "p2_switch"
"I53n I51n I49n I48n" "switch_ideal"
"I46n" "flicker_src"
