HEADER
"PSFversion" "1.00"
"gnd!v" "0v"
"p2!v" "p2!v"
"p1!v" "p1!v"
