HEADER
"PSFversion" "1.00"
"__NEXT_FILE__" "hw4_cds_flicker"
