HEADER
"PSFversion" "1.00"
"design" "(\"hw4\" \"hw4_cds_flicker\" \"schematic\" \"\")"
"simulator" "spectre"
"temperature" "27"
"host" ""
"date" "Oct 25 12:19:25 2017"
"title" ""
"analysisList" "()"
END
