HEADER
"PSFversion" "1.00"
"MNn" "ee315_nmos_spectre"
"V1n V0n" "ee315_vdc_spectre"
"MPn" "ee315_pmos4_spectre"
