HEADER
"PSFversion" "1.00"
"F9n F8n F7n F5n F4n F3n F2n F1n F0n G0n" "ee315_cccs_spectre"
"R6n R5n R4n R3n R2n R1n R0n" "ee315_res_spectre"
"V6n V5n V3n V4n V0n Vp2n Vp1n" "ee315_vpulse_spectre"
"C6n C5n C4n C3n C2n C1n C0n" "ee315_cap_spectre"
"E6n E5n E4n E3n E2n E1n E0n" "ee315_vcvs_spectre"
"p1v" ":1v"
"p1bv" ":2v"
"p1ev" ":3v"
"p1ebv" ":4v"
"p2v" ":5v"
"p2bv" ":6v"
"p2ev" ":7v"
"vddv" ":8v"
