HEADER
"PSFversion" "1.00"
"design" "(\"ee315\" \"example_cs\" \"schematic\" \"\")"
"simulator" "spectre"
"temperature" "27"
"host" ""
"date" "Oct  5 20:55:38 2017"
"title" ""
"analysisList" "()"
END
