HEADER
"PSFversion" "1.00"
"simulator" "spectre"
"version" "10.1.1.260.isr16"
"date" "8:55:43 PM, Thur Oct 5, 2017"
"design" "// Generated for: spectre"
"analysis type" "info.subckts"
"analysis name" "subckts"
"analysis description" "Circuit Information"
"xVecSorted" "unsorted"
"tolerance.relative" 0.00100000
END
