HEADER
"PSFversion" "1.00"
"Time Stamp" "Oct  5 20:55:38 2017"
TYPE
"variable" STRUCT(
"value" FLOAT DOUBLE
) PROP( "key" "element" )
VALUE
"temp" "variable" ( 27 ) PROP( )
END
