HEADER
"PSFversion" "1.00"
"R0n" "ee315_res_spectre"
"C0n" "ee315_cap_spectre"
"V0n" "ee315_vdc_spectre"
