HEADER
"PSFversion" "1.00"
"design" "(\"ee315_wrk\" \"comparator_tb\" \"schematic\" \"\")"
"simulator" "spectre"
"temperature" "27"
"host" ""
"date" "Oct 31 23:56:11 2017"
"title" ""
"analysisList" "()"
END
