HEADER
"PSFversion" "1.00"
"Time Stamp" "Oct 31 23:56:11 2017"
TYPE
"variable" STRUCT(
"value" FLOAT DOUBLE
) PROP( "key" "element" )
VALUE
"vid" "variable" ( 1e-6 ) PROP( )
"vic" "variable" ( 900e-3 ) PROP( )
"vdd" "variable" ( 1.8 ) PROP( )
"temp" "variable" ( 27 ) PROP( )
END
