HEADER
"PSFversion" "1.00"
"design" "(\"hw4\" \"hw4_cds_starter\" \"schematic\" \"\")"
"simulator" "spectre"
"temperature" "27"
"host" ""
"date" "Oct 25 21:52:13 2017"
"title" ""
"analysisList" "()"
END
