HEADER
"PSFversion" "1.00"
"V1n" "ee315_vpulse_spectre"
"V0n" "ee315_vdc_spectre"
"I2n" "ee315_switch_spectre"
"R0n" "ee315_res_spectre"
"C0n" "ee315_cap_spectre"
