HEADER
"PSFversion" "1.00"
"design" "(\"ee315_wrk\" \"example_pss\" \"schematic\" \"\")"
"simulator" "spectre"
"temperature" "27"
"host" ""
"date" "Oct 18 00:34:04 2017"
"title" ""
"analysisList" "()"
END
