HEADER
"PSFversion" "1.00"
"design" "(\"hw3_p3\" \"p3\" \"schematic\" \"\")"
"simulator" "spectre"
"temperature" "27"
"host" ""
"date" "Oct 17 23:13:51 2017"
"title" ""
"analysisList" "()"
END
