HEADER
"PSFversion" "1.00"
"Time Stamp" "Oct 17 23:13:51 2017"
TYPE
"variable" STRUCT(
"value" FLOAT DOUBLE
) PROP( "key" "element" )
VALUE
"vin" "variable" ( 0 ) PROP( )
"temp" "variable" ( 27 ) PROP( )
END
